<?xml version="1.0" encoding="UTF-8"?>

<!-- generated on 4/25/2021 6:12:04 PM by Eclipse SUMO GUI Version 1.9.0
<configuration xmlns:xsi="http://www.w3.org/2001/XMLSchema-instance" xsi:noNamespaceSchemaLocation="http://sumo.dlr.de/xsd/sumoConfiguration.xsd">

    <input>
        <net-file value="demo.net.xml"/>
        <route-files value="demo.rou.xml"/>
        <additional-files value="demo.add.xml"/>
    </input>

    <output>
        <tripinfo-output value="tripinfo.xml"/>
    </output>

    <traci_server>
        <remote-port value="52808"/>
    </traci_server>

</configuration>
-->

<detector xmlns:xsi="http://www.w3.org/2001/XMLSchema-instance" xsi:noNamespaceSchemaLocation="http://sumo.dlr.de/xsd/det_e1_file.xsd">
    <interval begin="0.00" end="300.00" id="det_0" nVehContrib="9" flow="108.00" occupancy="1.93" speed="9.09" harmonicMeanSpeed="8.49" length="5.67" nVehEntered="9"/>
    <interval begin="300.00" end="600.00" id="det_0" nVehContrib="9" flow="108.00" occupancy="1.96" speed="9.60" harmonicMeanSpeed="8.64" length="5.89" nVehEntered="9"/>
    <interval begin="600.00" end="900.00" id="det_0" nVehContrib="8" flow="96.00" occupancy="1.53" speed="10.79" harmonicMeanSpeed="10.02" length="6.00" nVehEntered="8"/>
    <interval begin="900.00" end="1200.00" id="det_0" nVehContrib="11" flow="132.00" occupancy="2.26" speed="9.57" harmonicMeanSpeed="9.00" length="5.73" nVehEntered="11"/>
    <interval begin="1200.00" end="1500.00" id="det_0" nVehContrib="11" flow="132.00" occupancy="2.28" speed="9.47" harmonicMeanSpeed="8.85" length="5.73" nVehEntered="11"/>
    <interval begin="1500.00" end="1800.00" id="det_0" nVehContrib="10" flow="120.00" occupancy="2.03" speed="9.75" harmonicMeanSpeed="9.22" length="5.80" nVehEntered="10"/>
    <interval begin="1800.00" end="2100.00" id="det_0" nVehContrib="10" flow="120.00" occupancy="2.06" speed="9.71" harmonicMeanSpeed="9.02" length="5.80" nVehEntered="10"/>
    <interval begin="2100.00" end="2400.00" id="det_0" nVehContrib="11" flow="132.00" occupancy="2.22" speed="10.16" harmonicMeanSpeed="9.33" length="5.91" nVehEntered="11"/>
    <interval begin="2400.00" end="2700.00" id="det_0" nVehContrib="9" flow="108.00" occupancy="1.80" speed="10.75" harmonicMeanSpeed="9.95" length="5.89" nVehEntered="10"/>
    <interval begin="2700.00" end="3000.00" id="det_0" nVehContrib="9" flow="108.00" occupancy="1.87" speed="9.80" harmonicMeanSpeed="9.09" length="5.89" nVehEntered="9"/>
    <interval begin="3000.00" end="3300.00" id="det_0" nVehContrib="11" flow="132.00" occupancy="2.36" speed="9.45" harmonicMeanSpeed="8.83" length="5.91" nVehEntered="11"/>
    <interval begin="3300.00" end="3600.00" id="det_0" nVehContrib="9" flow="108.00" occupancy="1.90" speed="8.98" harmonicMeanSpeed="8.71" length="5.67" nVehEntered="9"/>
    <interval begin="3600.00" end="3900.00" id="det_0" nVehContrib="12" flow="144.00" occupancy="2.51" speed="9.84" harmonicMeanSpeed="8.87" length="5.83" nVehEntered="12"/>
    <interval begin="3900.00" end="4200.00" id="det_0" nVehContrib="7" flow="84.00" occupancy="1.35" speed="10.91" harmonicMeanSpeed="10.27" length="6.14" nVehEntered="7"/>
    <interval begin="4200.00" end="4500.00" id="det_0" nVehContrib="9" flow="108.00" occupancy="1.95" speed="9.24" harmonicMeanSpeed="8.81" length="5.89" nVehEntered="9"/>
    <interval begin="4500.00" end="4800.00" id="det_0" nVehContrib="8" flow="96.00" occupancy="1.69" speed="9.78" harmonicMeanSpeed="9.08" length="6.00" nVehEntered="8"/>
    <interval begin="4800.00" end="5100.00" id="det_0" nVehContrib="10" flow="120.00" occupancy="2.00" speed="10.27" harmonicMeanSpeed="9.17" length="5.80" nVehEntered="10"/>
    <interval begin="5100.00" end="5400.00" id="det_0" nVehContrib="11" flow="132.00" occupancy="2.30" speed="9.47" harmonicMeanSpeed="8.75" length="5.73" nVehEntered="11"/>
    <interval begin="5400.00" end="5700.00" id="det_0" nVehContrib="9" flow="108.00" occupancy="1.79" speed="9.61" harmonicMeanSpeed="9.26" length="5.67" nVehEntered="9"/>
    <interval begin="5700.00" end="6000.00" id="det_0" nVehContrib="11" flow="132.00" occupancy="2.02" speed="11.10" harmonicMeanSpeed="10.31" length="5.91" nVehEntered="11"/>
    <interval begin="6000.00" end="6300.00" id="det_0" nVehContrib="7" flow="84.00" occupancy="1.44" speed="9.60" harmonicMeanSpeed="9.20" length="5.86" nVehEntered="7"/>
    <interval begin="6300.00" end="6600.00" id="det_0" nVehContrib="12" flow="144.00" occupancy="2.51" speed="9.48" harmonicMeanSpeed="8.66" length="5.67" nVehEntered="12"/>
    <interval begin="6600.00" end="6900.00" id="det_0" nVehContrib="5" flow="60.00" occupancy="0.91" speed="11.46" harmonicMeanSpeed="10.88" length="6.2