<?xml version="1.0" encoding="UTF-8"?>

<!-- generated on 04/09/21 16:38:18 by Eclipse SUMO GUI Version 1.8.0
<configuration xmlns:xsi="http://www.w3.org/2001/XMLSchema-instance" xsi:noNamespaceSchemaLocation="http://sumo.dlr.de/xsd/sumoConfiguration.xsd">

    <input>
        <net-file value="../maps/BlackwellTunnelNorthApproach/BlackwellTunnelNorthApproach.net.xml"/>
        <route-files value="../maps/BlackwellTunnelNorthApproach/BlackwellTunnelNorthApproach.rou.xml"/>
        <additional-files value="../output/additional.xml"/>
    </input>

    <time>
        <step-length value="0.1"/>
    </time>

    <processing>
        <collision.action value="none"/>
        <scale value="1"/>
    </processing>

    <report>
        <verbose value="true"/>
        <duration-log.statistics value="true"/>
    </report>

    <traci_server>
        <remote-port value="49421"/>
    </traci_server>

    <gui_only>
        <gui-settings-file value="../maps/BlackwellTunnelNorthApproach/gui.settings.xml"/>
        <start value="true"/>
        <tracker-interval value="0.1"/>
    </gui_only>

</configuration>
-->

<meandata xmlns:xsi="http://www.w3.org/2001/XMLSchema-instance" xsi:noNamespaceSchemaLocation="http://sumo.dlr.de/xsd/meandata_file.xsd">
    <interval begin="0.00" end="34.00" id="emissions">
        <edge id="-235744905#2" sampledSeconds="0.00" CO_abs="0" CO2_abs="0" HC_abs="0" PMx_abs="0" NOx_abs="0" fuel_abs="0" electricity_abs="0"
            CO_normed="0" CO2_normed="0" HC_normed="0" PMx_normed="0" NOx_normed="0" fuel_normed="0" electricity_normed="0"/>
        <edge id="-553673729" sampledSeconds="0.00" CO_abs="0" CO2_abs="0" HC_abs="0" PMx_abs="0" NOx_abs="0" fuel_abs="0" electricity_abs="0"
            CO_normed="0" CO2_normed="0" HC_normed="0" PMx_normed="0" NOx_normed="0" fuel_normed="0" electricity_normed="0"/>
        <edge id="204036496" sampledSeconds="68.58" CO_abs="920.993337" CO2_abs="125602.721960" HC_abs="6.981153" PMx_abs="1.658774" NOx_abs="46.394013" fuel_abs="53.991348" electricity_abs="0"
            CO_normed="342.308837" CO2_normed="46683.206041" HC_normed="2.594710" PMx_normed="0.616522" NOx_normed="17.243426" fuel_normed="20.067154" electricity_normed="0"
            traveltime="21.32" CO_perVeh="286.349439" CO2_perVeh="39051.605992" HC_perVeh="2.170536" PMx_perVeh="0.515735" NOx_perVeh="14.424534" fuel_perVeh="16.786649" electricity_perVeh="0"/>
        <edge id="204039621" sampledSeconds="0.00" CO_abs="0" CO2_abs="0" HC_abs="0" PMx_abs="0" NOx_abs="0" fuel_abs="0" electricity_abs="0"
            CO_normed="0" CO2_normed="0" HC_normed="0" PMx_normed="0" NOx_normed="0" fuel_normed="0" electricity_normed="0"/>
        <edge id="204040187#0" sampledSeconds="47.94" CO_abs="553.668149" CO2_abs="95673.346943" HC_abs="4.486814" PMx_abs="1.106243" NOx_abs="34.004102" fuel_abs="41.126084" electricity_abs="0"
            CO_normed="931.421773" CO2_normed="160948.825676" HC_normed="7.548052" PMx_normed="1.861005" NOx_normed="57.204232" fuel_normed="69.185361" electricity_normed="0"
            traveltime="4.66" CO_perVeh="53.871415" CO2_perVeh="9308.930892" HC_perVeh="0.436563" PMx_perVeh="0.107636" NOx_perVeh="3.308569" fuel_perVeh="4.001531" electricity_perVeh="0"/>
        <edge id="204195630" sampledSeconds="33.37" CO_abs="352.475481" CO2_abs="64346.303628" HC_abs="2.985942" PMx_abs="0.740035" NOx_abs="22.849478" fuel_abs="27.659861" electricity_abs="0"
            CO_normed="489.070020" CO2_normed="89282.374933" HC_normed="4.143081" PMx_normed="1.026820" NOx_normed="31.704318" fuel_normed="38.378865" electricity_normed="0"
            traveltime="5.58" CO_perVeh="58.962427" CO2_perVeh="10763.909570" HC_perVeh="0.499491" PMx_perVeh="0.123794" NOx_perVeh="3.822282" fuel_perVeh="4.626967" electricity_perVeh="0"/>
        <edge id="204332894#0" sampledSeconds="53.99" CO_abs="526.651842" CO2_abs="110001.404457" HC_abs="4.475260" PMx_abs="1.049874" NOx_abs="37.559977" fuel_abs="47.285363" electricity_abs="0"
            CO_normed="1543.829905" CO2_normed="322458.680253" HC_normed="13.118800" PMx_normed="3.077605" NOx_normed="110.103509" fuel_normed="138.612554" electricity_normed="0"
            traveltime="2.77" CO_perVeh="27.021613" CO2_perVeh="5643.985640" HC_perVeh="0.229618" PMx_perVeh="0.053867" NOx_perVeh="1.927139" fuel_perVeh="2.426132" electricity_perVeh="0"/>
        <edge id="204332894#1" sampledSeconds="187.73" CO_abs="2167.075884" CO2_abs="362588.267765" HC_abs="17.345440" PMx_abs="3.910325" NOx_abs="127.747716" fuel_abs="155.862399" electricity_abs="0"
            CO_normed="855.122773" CO2_normed="143076.431781" HC_normed="6.844468" PMx_normed="1.543005" NOx_normed="50.408932" fuel_normed="61.502916" electricity_normed="0"
            traveltime="20.89" CO_perVeh="241.140912" CO2_perVeh="40346.932982" HC_perVeh="1.930110" PMx_perVeh="0.435121" NOx_perVeh="14.215100" fuel_perVeh="17.343556" electricity_perVeh="0"/>
        <edge id="235744905#2" sampledSeconds="41.46" CO_abs="5212.562224" CO2_abs="237920.155654" HC_abs="29.383384" PMx_abs="4.842690" NOx_abs="102.917966" fuel_abs="102.271893" electricity_abs="0"
            CO_normed="19203.839706" CO2_normed="876532.564119" HC_normed="108.252674" PMx_normed="17.841177" NOx_normed="379.164800" fuel_normed="376.784574" electricity_normed="0"
            traveltime="3.92" CO_perVeh="493.344656" CO2_perVeh="22518.030934" HC_perVeh="2.781000" PMx_perVeh="0.458338" NOx_perVeh="9.740705" fuel_perVeh="9.679557" electricity_perVeh="0"/>
        <edge id="235745292#1" sampledSeconds="6.22" CO_abs="113.166732" CO2_abs="13942.598634" HC_abs="0.831354" PMx_abs="0.203005" NOx_abs="5.274548" fuel_abs="5.993320" electricity_abs="0"
            CO_normed="403.582347" CO2_normed="49722.975732" HC_normed="2.964829" PMx_normed="0.723969" NOx_normed="18.810427" fuel_normed="21.373756" electricity_normed="0"
            traveltime="2.17" CO_perVeh="39.507174" CO2_perVeh="4867.443423" HC_perVeh="0.290231" PMx_perVeh="0.070870" NOx_perVeh="1.841376" fuel_perVeh="2.092303" electricity_perVeh="0"/>
        <edge id="238640116" sampledSeconds="13.90" CO_abs="228.606382" CO2_abs="25239.999857" HC_abs="1.610682" PMx_abs="0.339861" NOx_abs="9.442877" fuel_abs="10.849640" electricity_abs="0"
            CO_normed="1240.665382" CO2_normed="136979.527069" HC_normed="8.741300" PMx_normed="1.844452" NOx_normed="51.247260" fuel_normed="58.881875" electricity_normed="0"
            traveltime="1.58" CO_perVeh="25.995865" CO2_perVeh="2870.154440" HC_perVeh="0.183158" PMx_perVeh="0.038647" NOx_perVeh="1.073792" fuel_perVeh="1.233762" electricity_perVeh="0"/>
        <edge id="24030319" sampledSeconds="0.00" CO_abs="0" CO2_abs="0" HC_abs="0" PMx_abs="0" NOx_abs="0" fuel_abs="0" electricity_abs="0"
            CO_normed="0" CO2_normed="0" HC_normed="0" PMx_normed="0" NOx_normed="0" fuel_normed="0" electricity_normed="0"/>
        <edge id="33740900#2" sampledSeconds="162.65" CO_abs="11388.021350" CO2_abs="633317.935326" HC_abs="66.772225" PMx_abs="11.830710" NOx_abs="264.064409" fuel_abs="272.236611" electricity_abs="0"
            CO_normed="8315.223060" CO2_normed="462431.509221" HC_normed="48.755261" PMx_normed="8.638463" NOx_normed="192.812640" fuel_normed="198.779760" electricity_normed="0"
            traveltime="13.84" CO_perVeh="969.094013" CO2_perVeh="53893.876811" HC_perVeh="5.682160" PMx_perVeh="1.006766" NOx_perVeh="22.471264" fuel_perVeh="23.166700" electricity_perVeh="0"/>
        <edge id="37576800" sampledSeconds="13.79" CO_abs="207.042562" CO2_abs="26088.446001" HC_abs="1.538431" PMx_abs="0.364987" NOx_abs="9.795847" fuel_abs="11.214312" electricity_abs="0"
            CO_normed="253.171887" CO2_normed="31900.982182" HC_normed="1.881195" PMx_normed="0.446306" NOx_normed="11.978374" fuel_normed="13.712874" electricity_normed="0"
            traveltime="6.45" CO_perVeh="96.810833" CO2_perVeh="12198.671417" HC_perVeh="0.719353" PMx_perVeh="0.170664" NOx_perVeh="4.580431" fuel_perVeh="5.243689" electricity_perVeh="0"/>
        <edge id="37594519" sampledSeconds="0.00" CO_abs="0" CO2_abs="0" HC_abs="0" PMx_abs="0" NOx_abs="0" fuel_abs="0" electricity_abs="0"
            CO_normed="0" CO2_normed="0" HC_normed="0" PMx_normed="0" NOx_normed="0" fuel_normed="0" electricity_normed="0"/>
        <edge id="5026614.1317" sampledSeconds="170.78" CO_abs="15018.805147" CO2_abs="886184.737050" HC_abs="88.883484" PMx_abs="16.845219" NOx_abs="371.690023" fuel_abs="380.932014" electricity_abs="0"
            CO_normed="23396.004521" CO2_normed="1380481.463873" HC_normed="138.460975" PMx_normed="26.241156" NOx_normed="579.011538" fuel_normed="593.408532" electricity_normed="0"
            traveltime="6.46" CO_perVeh="568.184740" CO2_perVeh="33525.745854" HC_perVeh="3.362600" PMx_perVeh="0.637281" NOx_perVeh="14.061611" fuel_perVeh="14.411250" electricity_perVeh="0"/>
        <edge id="5027151" sampledSeconds="24.77" CO_abs="383.766611" CO2_abs="45643.258502" HC_abs="2.771623" PMx_abs="0.594804" NOx_abs="16.920109" fuel_abs="19.620170" electricity_abs="0"
            CO_normed="1027.151460" CO2_normed="122164.196312" HC_normed="7.418251" PMx_normed="1.591992" NOx_normed="45.286678" fuel_normed="52.513391" electricity_normed="0"
            traveltime="3.14" CO_perVeh="48.672118" CO2_perVeh="5788.815422" HC_perVeh="0.351518" PMx_perVeh="0.075437" NOx_perVeh="2.145933" fuel_perVeh="2.488375" electricity_perVeh="0"/>
        <edge id="553671686#0" sampledSeconds="0.00" CO_abs="0" CO2_abs="0" HC_abs="0" PMx_abs="0" NOx_abs="0" fuel_abs="0" electricity_abs="0"
            CO_normed="0" CO2_normed="0" HC_normed="0" PMx_normed="0" NOx_normed="0" fuel_normed="0" electricity_normed="0"/>
        <edge id="553805196#0" sampledSeconds="0.00" CO_abs="0" CO2_abs="0" HC_abs="0" PMx_abs="0" NOx_abs="0" fuel_abs="0" electricity_abs="0"
            CO_normed="0" CO2_normed="0" HC_normed="0" PMx_normed="0" NOx_normed="0" fuel_normed="0" electricity_normed="0"/>
        <edge id="A12MergeNorth1" sampledSeconds="0.00" CO_abs="0" CO2_abs="0" HC_abs="0" PMx_abs="0" NOx_abs="0" fuel_abs="0" electricity_abs="0"
            CO_normed="0" CO2_normed="0" HC_normed="0" PMx_normed="0" NOx_normed="0" fuel_normed="0" electricity_normed="0"/>
        <edge id="A12MergeNorth2" sampledSeconds="0.00" CO_abs="0" CO2_abs="0" HC_abs="0" PMx_abs="0" NOx_abs="0" fuel_abs="0" electricity_abs="0"
            CO_normed="0" CO2_normed="0" HC_normed="0" PMx_normed="0" NOx_normed="0" fuel_normed="0" electricity_normed="0"/>
        <edge id="A12MergeOnNorth1" sampledSeconds="0.00" CO_abs="0" CO2_abs="0" HC_abs="0" PMx_abs="0" NOx_abs="0" fuel_abs="0" electricity_abs="0"
            CO_normed="0" CO2_normed="0" HC_normed="0" PMx_normed="0" NOx_normed="0" fuel_normed="0" electricity_normed="0"/>
        <edge id="A12MergeOnNorth2" sampledSeconds="0.00" CO_abs="0" CO2_abs="0" HC_abs="0" PMx_abs="0" NOx_abs="0" fuel_abs="0" electricity_abs="0"
            CO_normed="0" CO2_normed="0" HC_normed="0" PMx_normed="0" NOx_normed="0" fuel_normed="0" electricity_normed="0"/>
        <edge id="A12MergeSouth2Ona" sampledSeconds="6.91" CO_abs="40.559022" CO2_abs="7794.577040" HC_abs="0.359901" PMx_abs="0.098359" NOx_abs="2.807648" fuel_abs="3.350560" electricity_abs="0"
            CO_normed="52.416511" CO2_normed="10073.332811" HC_normed="0.465118" PMx_normed="0.127115" NOx_normed="3.628468" fuel_normed="4.330101" electricity_normed="0"
            traveltime="7.01" CO_perVeh="41.164236" CO2_perVeh="7910.886074" HC_perVeh="0.365271" PMx_perVeh="0.099827" NOx_perVeh="2.849543" fuel_perVeh="3.400556" electricity_perVeh="0"/>
        <edge id="A12MergeSouth2Onb" sampledSeconds="23.15" CO_abs="883.122913" CO2_abs="72297.148927" HC_abs="5.710744" PMx_abs="1.227509" NOx_abs="29.028252" fuel_abs="31.077352" electricity_abs="0"
            CO_normed="647.063400" CO2_normed="52972.058953" HC_normed="4.184257" PMx_normed="0.899394" NOx_normed="21.268975" fuel_normed="22.770349" electricity_normed="0"
            traveltime="11.41" CO_perVeh="435.182768" CO2_perVeh="35626.380986" HC_perVeh="2.814124" PMx_perVeh="0.604888" NOx_perVeh="14.304458" fuel_perVeh="15.314208" electricity_perVeh="0"/>
        <edge id="A12MergeSouth2a" sampledSeconds="0.00" CO_abs="0" CO2_abs="0" HC_abs="0" PMx_abs="0" NOx_abs="0" fuel_abs="0" electricity_abs="0"
            CO_normed="0" CO2_normed="0" HC_normed="0" PMx_normed="0" NOx_normed="0" fuel_normed="0" electricity_normed="0"/>
        <edge id="A12MergeSouth2b" sampledSeconds="0.85" CO_abs="26.161447" CO2_abs="2768.027747" HC_abs="0.184008" PMx_abs="0.044852" NOx_abs="1.081591" fuel_abs="1.189851" electricity_abs="0"
            CO_normed="27.716985" CO2_normed="2932.612476" HC_normed="0.194949" PMx_normed="0.047519" NOx_normed="1.145902" fuel_normed="1.260599" electricity_normed="0"
            traveltime="7.03" CO_perVeh="216.305034" CO2_perVeh="22886.285483" HC_perVeh="1.521394" PMx_perVeh="0.370841" NOx_perVeh="8.942687" fuel_perVeh="9.837790" electricity_perVeh="0"/>
        <edge id="A12NorthIn" sampledSeconds="67.10" CO_abs="9685.361227" CO2_abs="264941.405740" HC_abs="50.338322" PMx_abs="5.759114" NOx_abs="117.330201" fuel_abs="113.889919" electricity_abs="0"
            CO_normed="14823.776176" CO2_normed="405501.870935" HC_normed="77.044521" PMx_normed="8.814520" NOx_normed="179.577880" fuel_normed="174.312410" electricity_normed="0"
            traveltime="23.46" CO_perVeh="3386.737986" CO2_perVeh="92643.640428" HC_perVeh="17.602101" PMx_perVeh="2.013824" NOx_perVeh="41.027551" fuel_perVeh="39.824567" electricity_perVeh="0"/>
        <edge id="A12NorthIn.81" sampledSeconds="197.64" CO_abs="17221.420902" CO2_abs="926022.146178" HC_abs="99.985123" PMx_abs="17.711782" NOx_abs="389.807597" fuel_abs="398.057474" electricity_abs="0"
            CO_normed="22450.684143" CO2_normed="1207207.630054" HC_normed="130.345483" PMx_normed="23.089943" NOx_normed="508.172193" fuel_normed="518.927135" electricity_normed="0"
            traveltime="8.29" CO_perVeh="722.695196" CO2_perVeh="38860.426198" HC_perVeh="4.195866" PMx_perVeh="0.743273" NOx_perVeh="16.358237" fuel_perVeh="16.704442" electricity_perVeh="0"/>
        <edge id="A12NorthOut" sampledSeconds="0.00" CO_abs="0" CO2_abs="0" HC_abs="0" PMx_abs="0" NOx_abs="0" fuel_abs="0" electricity_abs="0"
            CO_normed="0" CO2_normed="0" HC_normed="0" PMx_normed="0" NOx_normed="0" fuel_normed="0" electricity_normed="0"/>
        <edge id="A12OffMiddle" sampledSeconds="0.00" CO_abs="0" CO2_abs="0" HC_abs="0" PMx_abs="0" NOx_abs="0" fuel_abs="0" electricity_abs="0"
            CO_normed="0" CO2_normed="0" HC_normed="0" PMx_normed="0" NOx_normed="0" fuel_normed="0" electricity_normed="0"/>
        <edge id="A12OffRoad1" sampledSeconds="18.79" CO_abs="370.129873" CO2_abs="29556.167690" HC_abs="2.373435" PMx_abs="0.471455" NOx_abs="11.631880" fuel_abs="12.704950" electricity_abs="0"
            CO_normed="373.240208" CO2_normed="29804.538847" HC_normed="2.393380" PMx_normed="0.475417" NOx_normed="11.729626" fuel_normed="12.811714" electricity_normed="0"
            traveltime="9.64" CO_perVeh="189.864540" CO2_perVeh="15161.349049" HC_perVeh="1.217495" PMx_perVeh="0.241841" NOx_perVeh="5.966774" fuel_perVeh="6.517225" electricity_perVeh="0"/>
        <edge id="A12OffRoad2" sampledSeconds="25.22" CO_abs="569.760051" CO2_abs="42069.629335" HC_abs="3.568278" PMx_abs="0.649707" NOx_abs="16.358761" fuel_abs="18.084035" electricity_abs="0"
            CO_normed="575.644416" CO2_normed="42504.115853" HC_normed="3.605130" PMx_normed="0.656417" NOx_normed="16.527711" fuel_normed="18.270803" electricity_normed="0"
            traveltime="10.08" CO_perVeh="227.742647" CO2_perVeh="16815.936319" HC_perVeh="1.426301" PMx_perVeh="0.259699" NOx_perVeh="6.538871" fuel_perVeh="7.228492" electricity_perVeh="0"/>
        <edge id="A12OffRoad3" sampledSeconds="27.37" CO_abs="683.613489" CO2_abs="63520.136598" HC_abs="4.562447" PMx_abs="0.928261" NOx_abs="24.417830" fuel_abs="27.304662" electricity_abs="0"
            CO_normed="1467.016715" CO2_normed="136312.556185" HC_normed="9.790892" PMx_normed="1.992025" NOx_normed="52.400027" fuel_normed="58.595093" electricity_normed="0"
            traveltime="4.04" CO_perVeh="100.783121" CO2_perVeh="9364.586438" HC_perVeh="0.672628" PMx_perVeh="0.136851" NOx_perVeh="3.599849" fuel_perVeh="4.025446" electricity_perVeh="0"/>
        <edge id="A12RoadWest" sampledSeconds="6.20" CO_abs="109.751021" CO2_abs="12595.946978" HC_abs="0.789985" PMx_abs="0.171547" NOx_abs="4.734916" fuel_abs="5.414474" electricity_abs="0"
            CO_normed="159.866506" CO2_normed="18347.620079" HC_normed="1.150716" PMx_normed="0.249880" NOx_normed="6.897016" fuel_normed="7.886879" electricity_normed="0"
            traveltime="5.80" CO_perVeh="102.687627" CO2_perVeh="11785.292648" HC_perVeh="0.739143" PMx_perVeh="0.160506" NOx_perVeh="4.430185" fuel_perVeh="5.066007" electricity_perVeh="0"/>
        <edge id="A12SouthIn" sampledSeconds="96.81" CO_abs="13634.709715" CO2_abs="422812.666330" HC_abs="72.080517" PMx_abs="9.122794" NOx_abs="186.781853" fuel_abs="181.752320" electricity_abs="0"
            CO_normed="16028.368450" CO2_normed="497040.079542" HC_normed="84.734703" PMx_normed="10.724358" NOx_normed="219.572578" fuel_normed="213.660079" electricity_normed="0"
            traveltime="24.05" CO_perVeh="3387.361299" CO2_perVeh="105042.152900" HC_perVeh="17.907440" PMx_perVeh="2.266436" NOx_perVeh="46.403454" fuel_perVeh="45.153934" electricity_perVeh="0"/>
        <edge id="A12SouthMerge1" sampledSeconds="29.98" CO_abs="371.743579" CO2_abs="65971.546597" HC_abs="3.031383" PMx_abs="0.775860" NOx_abs="23.480052" fuel_abs="28.358460" electricity_abs="0"
            CO_normed="837.826412" CO2_normed="148685.027264" HC_normed="6.832055" PMx_normed="1.748614" NOx_normed="52.918755" fuel_normed="63.913591" electricity_normed="0"
            traveltime="3.39" CO_perVeh="41.998156" CO2_perVeh="7453.210993" HC_perVeh="0.342474" PMx_perVeh="0.087654" NOx_perVeh="2.652686" fuel_perVeh="3.203830" electricity_perVeh="0"/>
        <edge id="A12SouthMerge1On" sampledSeconds="0.00" CO_abs="0" CO2_abs="0" HC_abs="0" PMx_abs="0" NOx_abs="0" fuel_abs="0" electricity_abs="0"
            CO_normed="0" CO2_normed="0" HC_normed="0" PMx_normed="0" NOx_normed="0" fuel_normed="0" electricity_normed="0"/>
        <edge id="A12SouthOut" sampledSeconds="0.00" CO_abs="0" CO2_abs="0" HC_abs="0" PMx_abs="0" NOx_abs="0" fuel_abs="0" electricity_abs="0"
            CO_normed="0" CO2_normed="0" HC_normed="0" PMx_normed="0" NOx_normed="0" fuel_normed="0" electricity_normed="0"/>
        <edge id="A13In" sampledSeconds="32.47" CO_abs="4732.094413" CO2_abs="120658.532455" HC_abs="24.382597" PMx_abs="2.645632" NOx_abs="53.552544" fuel_abs="51.867524" electricity_abs="0"
            CO_normed="5144.730371" CO2_normed="131179.888272" HC_normed="26.508746" PMx_normed="2.876329" NOx_normed="58.222296" fuel_normed="56.390343" electricity_normed="0"
            traveltime="38.09" CO_perVeh="5551.278628" CO2_perVeh="141546.020449" HC_perVeh="28.603527" PMx_perVeh="3.103623" NOx_perVeh="62.823153" fuel_perVeh="60.846436" electricity_perVeh="0"/>
        <edge id="A13Out" sampledSeconds="0.00" CO_abs="0" CO2_abs="0" HC_abs="0" PMx_abs="0" NOx_abs="0" fuel_abs="0" electricity_abs="0"
            CO_normed="0" CO2_normed="0" HC_normed="0" PMx_normed="0" NOx_normed="0" fuel_normed="0" electricity_normed="0"/>
        <edge id="A13RoadIn" sampledSeconds="20.50" CO_abs="285.117145" CO2_abs="40213.762014" HC_abs="2.210316" PMx_abs="0.534173" NOx_abs="14.841849" fuel_abs="17.286205" electricity_abs="0"
            CO_normed="597.444572" CO2_normed="84265.342225" HC_normed="4.631575" PMx_normed="1.119326" NOx_normed="31.100136" fuel_normed="36.222127" electricity_normed="0"
            traveltime="3.73" CO_perVeh="51.888959" CO2_perVeh="7318.571563" HC_perVeh="0.402259" PMx_perVeh="0.097215" NOx_perVeh="2.701094" fuel_perVeh="3.145946" electricity_perVeh="0"/>
        <edge id="MiddleJunction1" sampledSeconds="0.00" CO_abs="0" CO2_abs="0" HC_abs="0" PMx_abs="0" NOx_abs="0" fuel_abs="0" electricity_abs="0"
            CO_normed="0" CO2_normed="0" HC_normed="0" PMx_normed="0" NOx_normed="0" fuel_normed="0" electricity_normed="0"/>
        <edge id="MiddleJunction2" sampledSeconds="14.07" CO_abs="1647.243798" CO2_abs="28700.199774" HC_abs="8.174463" PMx_abs="0.695297" NOx_abs="12.982739" fuel_abs="12.337729" electricity_abs="0"
            CO_normed="5083.475638" CO2_normed="88570.232643" HC_normed="25.226797" PMx_normed="2.145720" NOx_normed="40.065374" fuel_normed="38.074841" electricity_normed="0"
            traveltime="14.49" CO_perVeh="1696.746670" CO2_perVeh="29562.696465" HC_perVeh="8.420122" PMx_perVeh="0.716192" NOx_perVeh="13.372896" fuel_perVeh="12.708502" electricity_perVeh="0"/>
        <edge id="NewIn" sampledSeconds="12.55" CO_abs="1715.442777" CO2_abs="45550.683584" HC_abs="8.880186" PMx_abs="0.981034" NOx_abs="20.108740" fuel_abs="19.580854" electricity_abs="0"
            CO_normed="6362.000615" CO2_normed="168932.173588" HC_normed="32.933626" PMx_normed="3.638324" NOx_normed="74.576558" fuel_normed="72.618804" electricity_normed="0"
            traveltime="10.07" CO_perVeh="1375.727283" CO2_perVeh="36530.112818" HC_perVeh="7.121610" PMx_perVeh="0.786756" NOx_perVeh="16.126532" fuel_perVeh="15.703184" electricity_perVeh="0"/>
        <edge id="NewOut" sampledSeconds="0.00" CO_abs="0" CO2_abs="0" HC_abs="0" PMx_abs="0" NOx_abs="0" fuel_abs="0" electricity_abs="0"
            CO_normed="0" CO2_normed="0" HC_normed="0" PMx_normed="0" NOx_normed="0" fuel_normed="0" electricity_normed="0"/>
        <edge id="NewRoadEast" sampledSeconds="0.00" CO_abs="0" CO2_abs="0" HC_abs="0" PMx_abs="0" NOx_abs="0" fuel_abs="0" electricity_abs="0"
            CO_normed="0" CO2_normed="0" HC_normed="0" PMx_normed="0" NOx_normed="0" fuel_normed="0" electricity_normed="0"/>
        <edge id="NewRoadIn" sampledSeconds="55.60" CO_abs="5986.943623" CO2_abs="171831.386916" HC_abs="31.317187" PMx_abs="3.697836" NOx_abs="75.235266" fuel_abs="73.864740" electricity_abs="0"
            CO_normed="8651.722093" CO2_normed="248313.246292" HC_normed="45.256414" PMx_normed="5.343736" NOx_normed="108.722355" fuel_normed="106.741811" electricity_normed="0"
            traveltime="15.55" CO_perVeh="1674.047024" CO2_perVeh="48046.856614" HC_perVeh="8.756796" PMx_perVeh="1.033975" NOx_perVeh="21.037007" fuel_perVeh="20.653785" electricity_perVeh="0"/>
        <edge id="RoundIn" sampledSeconds="23.06" CO_abs="3258.213150" CO2_abs="89134.878119" HC_abs="16.932139" PMx_abs="1.926691" NOx_abs="39.406738" fuel_abs="38.316277" electricity_abs="0"
            CO_normed="2423.854947" CO2_normed="66309.355894" HC_normed="12.596183" PMx_normed="1.433307" NOx_normed="29.315521" fuel_normed="28.504304" electricity_normed="0"
            traveltime="47.78" CO_perVeh="6750.239848" CO2_perVeh="184666.189267" HC_perVeh="35.079351" PMx_perVeh="3.991643" NOx_perVeh="81.641353" fuel_perVeh="79.382179" electricity_perVeh="0"/>
        <edge id="RoundOut" sampledSeconds="0.00" CO_abs="0" CO2_abs="0" HC_abs="0" PMx_abs="0" NOx_abs="0" fuel_abs="0" electricity_abs="0"
            CO_normed="0" CO2_normed="0" HC_normed="0" PMx_normed="0" NOx_normed="0" fuel_normed="0" electricity_normed="0"/>
        <edge id="RoundRoadIn" sampledSeconds="159.33" CO_abs="12820.757434" CO2_abs="300502.843262" HC_abs="65.435959" PMx_abs="6.583090" NOx_abs="131.139739" fuel_abs="129.178382" electricity_abs="0"
            CO_normed="16201.121418" CO2_normed="379734.432631" HC_normed="82.689023" PMx_normed="8.318809" NOx_normed="165.716483" fuel_normed="163.237989" electricity_normed="0"
            traveltime="22.25" CO_perVeh="1790.446053" CO2_perVeh="41965.861408" HC_perVeh="9.138271" PMx_perVeh="0.919342" NOx_perVeh="18.313944" fuel_perVeh="18.040036" electricity_perVeh="0"/>
        <edge id="gneE27" sampledSeconds="6.78" CO_abs="388.034844" CO2_abs="8863.389934" HC_abs="1.974473" PMx_abs="0.191748" NOx_abs="3.829353" fuel_abs="3.810156" electricity_abs="0"
            CO_normed="1064.405240" CO2_normed="24312.864798" HC_normed="5.416109" PMx_normed="0.525978" NOx_normed="10.504168" fuel_normed="10.451510" electricity_normed="0"
            traveltime="6.96" CO_perVeh="398.365515" CO2_perVeh="9099.360414" HC_perVeh="2.027039" PMx_perVeh="0.196853" NOx_perVeh="3.931302" fuel_perVeh="3.911594" electricity_perVeh="0"/>
        <edge id="gneE30" sampledSeconds="3.71" CO_abs="59.221446" CO2_abs="9086.843570" HC_abs="0.475713" PMx_abs="0.126712" NOx_abs="3.365399" fuel_abs="3.906041" electricity_abs="0"
            CO_normed="114.781367" CO2_normed="17611.868535" HC_normed="0.922013" PMx_normed="0.245590" NOx_normed="6.522722" fuel_normed="7.570580" electricity_normed="0"
            traveltime="3.73" CO_perVeh="59.407625" CO2_perVeh="9115.410543" HC_perVeh="0.477208" PMx_perVeh="0.127111" NOx_perVeh="3.375979" fuel_perVeh="3.918320" electricity_perVeh="0"/>
        <edge id="gneE32" sampledSeconds="8.08" CO_abs="790.933333" CO2_abs="12598.666667" HC_abs="3.897333" PMx_abs="0.316667" NOx_abs="5.781333" fuel_abs="5.415993" electricity_abs="0"
            CO_normed="3993.604309" CO2_normed="63613.565598" HC_normed="19.678532" PMx_normed="1.598923" NOx_normed="29.191282" fuel_normed="27.346593" electricity_normed="0"
            traveltime="8.48" CO_perVeh="830.581001" CO2_perVeh="13230.208838" HC_perVeh="4.092698" PMx_perVeh="0.332540" NOx_perVeh="6.071138" fuel_perVeh="5.687484" electricity_perVeh="0"/>
        <edge id="gneE34" sampledSeconds="0.00" CO_abs="0" CO2_abs="0" HC_abs="0" PMx_abs="0" NOx_abs="0" fuel_abs="0" electricity_abs="0"
            CO_normed="0" CO2_normed="0" HC_normed="0" PMx_normed="0" NOx_normed="0" fuel_normed="0" electricity_normed="0"/>
        <edge id="gneE8.37" sampledSeconds="0.00" CO_abs="0" CO2_abs="0" HC_abs="0" PMx_abs="0" NOx_abs="0" fuel_abs="0" electricity_abs="0"
            CO_normed="0" CO2_normed="0" HC_normed="0" PMx_normed="0" NOx_normed="0" fuel_normed="0" electricity_normed="0"/>
    </interval>
</meandata>
