<?xml version="1.0" encoding="UTF-8"?>

<!-- generated on 5/7/2021 2:33:23 AM by Eclipse SUMO GUI Version 1.9.0
<configuration xmlns:xsi="http://www.w3.org/2001/XMLSchema-instance" xsi:noNamespaceSchemaLocation="http://sumo.dlr.de/xsd/sumoConfiguration.xsd">

    <input>
        <net-file value="../maps/3_Lane/3_Lane_CIM.net.xml"/>
        <route-files value="../maps/3_Lane/3_Lane.rou.xml"/>
        <additional-files value="../output/additional.xml"/>
    </input>

    <output>
        <summary-output value="../output/siminfo.xml"/>
    </output>

    <time>
        <step-length value="0.1"/>
    </time>

    <processing>
        <collision.action value="none"/>
        <scale value="3"/>
    </processing>

    <report>
        <verbose value="true"/>
        <duration-log.statistics value="true"/>
    </report>

    <traci_server>
        <remote-port value="53554"/>
    </traci_server>

    <gui_only>
        <gui-settings-file value="../maps/3_Lane/gui.settings.xml"/>
        <start value="true"/>
        <tracker-interval value="0.1"/>
    </gui_only>

</configuration>
