<?xml version="1.0" encoding="UTF-8"?>

<!-- generated on 04/09/21 16:55:12 by Eclipse SUMO GUI Version 1.8.0
<configuration xmlns:xsi="http://www.w3.org/2001/XMLSchema-instance" xsi:noNamespaceSchemaLocation="http://sumo.dlr.de/xsd/sumoConfiguration.xsd">

    <input>
        <net-file value="../maps/NormalIntersection_no_TLS/NormalIntersection_no_TLS.net.xml"/>
        <route-files value="../maps/NormalIntersection_no_TLS/NormalIntersection_no_TLS.rou.xml"/>
        <additional-files value="../output/additional.xml"/>
    </input>

    <time>
        <step-length value="0.1"/>
    </time>

    <processing>
        <collision.action value="none"/>
        <scale value="3"/>
    </processing>

    <report>
        <verbose value="true"/>
        <duration-log.statistics value="true"/>
    </report>

    <traci_server>
        <remote-port value="49821"/>
    </traci_server>

    <gui_only>
        <gui-settings-file value="../maps/NormalIntersection_no_TLS/gui.settings.xml"/>
        <start value="true"/>
        <tracker-interval value="0.1"/>
    </gui_only>

</configuration>
-->

<meandata xmlns:xsi="http://www.w3.org/2001/XMLSchema-instance" xsi:noNamespaceSchemaLocation="http://sumo.dlr.de/xsd/meandata_file.xsd">
</meandata>
